#           x             y             z             p           U_x           U_y           U_z
         -0.5            -1           0.5       78.4626       36.3251       7.40928  -1.19204e-19
    -0.484375            -1           0.5        79.666       36.3028       7.38856  -6.60098e-21
     -0.46875            -1           0.5       80.3436       36.2839       7.37101  -5.95708e-20
    -0.453125            -1           0.5       81.1584       36.2626       7.34978  -3.60574e-19
      -0.4375            -1           0.5       82.1647       36.2417       7.33371   1.37718e-19
    -0.421875            -1           0.5       83.1516       36.2187       7.31322   1.51464e-20
     -0.40625            -1           0.5       84.1215       36.2003       7.28692  -6.13001e-19
    -0.390625            -1           0.5       84.9348       36.1818       7.26366  -4.40681e-20
       -0.375            -1           0.5        85.944       36.1621       7.23552  -3.88865e-19
    -0.359375            -1           0.5       86.9895       36.1406       7.20851  -6.12106e-20
     -0.34375            -1           0.5       87.7737       36.1194       7.18755  -8.57785e-21
    -0.328125            -1           0.5       88.5707       36.0989       7.16003  -1.26178e-21
      -0.3125            -1           0.5       89.6195       36.0765       7.13291   4.61318e-21
    -0.296875            -1           0.5       90.4712        36.058       7.10994   1.41574e-20
     -0.28125            -1           0.5       91.0784       36.0502       7.07744   4.65654e-19
    -0.265625            -1           0.5        91.674        36.037       7.04529  -3.27415e-19
        -0.25            -1           0.5       92.2779       36.0269       7.01821   -5.8326e-19
    -0.234375            -1           0.5       92.8435       36.0202       6.98132  -4.99446e-19
     -0.21875            -1           0.5       93.9008       36.0014       6.95042  -3.85751e-20
    -0.203125            -1           0.5       95.1726       35.9779       6.92168   5.80282e-19
      -0.1875            -1           0.5       95.5375       35.9673       6.89506   5.56526e-19
    -0.171875            -1           0.5        96.195       35.9533       6.85872   2.24677e-19
     -0.15625            -1           0.5       96.6731       35.9431       6.82215   5.89047e-20
    -0.140625            -1           0.5       97.2662       35.9325       6.79256   1.65149e-19
       -0.125            -1           0.5       97.9567       35.9234       6.76186  -1.30959e-19
    -0.109375            -1           0.5       98.3097       35.9157       6.72722   7.78812e-19
     -0.09375            -1           0.5       98.7372       35.9104       6.69155    1.1685e-18
    -0.078125            -1           0.5       99.3021       35.9043       6.65822   9.34982e-19
      -0.0625            -1           0.5       99.8873       35.8981       6.62523   6.09495e-19
    -0.046875            -1           0.5       100.411        35.894        6.5892  -7.00529e-20
     -0.03125            -1           0.5         100.9       35.8903       6.55354  -6.94807e-19
    -0.015625            -1           0.5       100.842       35.8897       6.51903  -1.70785e-19
  1.64799e-17            -1           0.5       101.172       35.8876       6.48233  -2.27178e-19
     0.015625            -1           0.5       101.445        35.884        6.4485  -3.13534e-19
      0.03125            -1           0.5       102.239       35.8807       6.41383  -3.81577e-19
     0.046875            -1           0.5       102.127       35.8869       6.37327   4.51315e-20
       0.0625            -1           0.5       102.291       35.8891       6.33535   5.78217e-20
     0.078125            -1           0.5       102.461       35.8911       6.29802   4.99331e-21
      0.09375            -1           0.5       102.615       35.8937        6.2618   1.58616e-19
     0.109375            -1           0.5       102.725       35.8978       6.22742   8.97124e-19
        0.125            -1           0.5       102.835       35.9019       6.19305   1.63563e-18
     0.140625            -1           0.5       102.672       35.9089       6.16484  -1.07365e-19
      0.15625            -1           0.5       102.485       35.9174       6.12515  -4.53109e-20
     0.171875            -1           0.5       102.349       35.9281          6.09  -7.71863e-21
       0.1875            -1           0.5       102.308       35.9379       6.05796  -1.40207e-19
     0.203125            -1           0.5       102.152       35.9525       6.02529   -3.7696e-20
      0.21875            -1           0.5       101.795       35.9674       5.99152   2.89619e-22
     0.234375            -1           0.5       101.718       35.9781       5.95573  -5.51818e-20
         0.25            -1           0.5       101.711       35.9867        5.9203  -9.46561e-21
     0.265625            -1           0.5       101.452       36.0002        5.8915   6.98812e-20
      0.28125            -1           0.5       100.827       36.0182       5.86072   2.94312e-19
     0.296875            -1           0.5       100.521       36.0311       5.83063  -5.46888e-19
       0.3125            -1           0.5       100.199       36.0465       5.79985  -6.11832e-20
     0.328125            -1           0.5       99.8525       36.0631       5.76961   3.56474e-19
      0.34375            -1           0.5       99.4919       36.0794       5.74196   3.86025e-19
     0.359375            -1           0.5       98.8758       36.0988       5.71196   4.87079e-19
        0.375            -1           0.5       98.3209       36.1176       5.68577  -7.56046e-19
     0.390625            -1           0.5       97.8308       36.1366       5.65949  -8.19257e-19
      0.40625            -1           0.5       97.3893       36.1554       5.63175   -4.5595e-19
     0.421875            -1           0.5       96.9205       36.1748       5.60784  -9.90748e-20
       0.4375            -1           0.5       96.4515       36.1941        5.5856   2.19396e-19
     0.453125            -1           0.5         95.74       36.2149       5.55979   1.72587e-20
      0.46875            -1           0.5       95.1287       36.2343       5.53642  -6.48595e-20
     0.484375            -1           0.5        94.541       36.2537       5.51364  -5.69668e-20
          0.5            -1           0.5       93.7332       36.2789       5.49165  -1.04243e-19
     0.515625            -1           0.5       93.0292       36.3023       5.46968  -1.75117e-19
      0.53125            -1           0.5       92.3391       36.3227       5.44667  -3.15772e-19
     0.546875            -1           0.5       92.0118       36.3454       5.42776   1.22561e-19
       0.5625            -1           0.5        91.129       36.3695       5.41085   6.68791e-20
     0.578125            -1           0.5       90.3627       36.3931       5.39245  -1.43245e-19
      0.59375            -1           0.5       89.7287       36.4147       5.37459  -4.38711e-19
     0.609375            -1           0.5       89.1069       36.4357       5.35687  -2.06757e-19
        0.625            -1           0.5       88.4845       36.4573       5.33741  -1.66729e-19
     0.640625            -1           0.5       87.7293       36.4797       5.32366   -1.3766e-19
      0.65625            -1           0.5       86.9645        36.502       5.31041  -3.79203e-20
     0.671875            -1           0.5       86.2124       36.5244        5.2965  -6.51957e-21
       0.6875            -1           0.5       85.5988       36.5482       5.28138   1.11136e-19
     0.703125            -1           0.5       85.0128       36.5718       5.26595    2.7224e-19
      0.71875            -1           0.5       84.1522       36.5938        5.2561   6.84949e-22
     0.734375            -1           0.5       83.2956       36.6177       5.24261  -9.02633e-20
         0.75            -1           0.5       82.6964       36.6393       5.23105  -1.63403e-20
     0.765625            -1           0.5       81.7819       36.6622       5.22038  -8.68254e-20
      0.78125            -1           0.5       81.0661       36.6838       5.21113   1.16712e-19
     0.796875            -1           0.5       80.3086       36.7064       5.20132   1.38137e-19
       0.8125            -1           0.5       79.5593       36.7284       5.19181   5.56521e-20
     0.828125            -1           0.5        78.897       36.7492         5.182    2.6896e-19
      0.84375            -1           0.5       78.2395         36.77       5.17234   5.18824e-19
     0.859375            -1           0.5       77.4261       36.7913       5.16511   5.04703e-20
        0.875            -1           0.5       76.7718       36.8126        5.1571   3.84497e-20
     0.890625            -1           0.5       76.1559       36.8323       5.14946   1.02213e-21
      0.90625            -1           0.5       75.3487       36.8545       5.14349   1.11624e-21
     0.921875            -1           0.5       74.5888       36.8769       5.13585  -1.37529e-20
       0.9375            -1           0.5       73.9123       36.8969       5.13106  -1.83671e-21
     0.953125            -1           0.5       73.2362       36.9179       5.12471  -5.74608e-21
      0.96875            -1           0.5       72.5413       36.9369       5.11915   2.59132e-19
     0.984375            -1           0.5       72.0142       36.9588       5.11766  -6.12215e-19
            1            -1           0.5       71.1422       36.9784       5.10493  -5.13813e-19
      1.01562            -1           0.5         70.48       36.9963       5.10314  -3.44487e-20
      1.03125            -1           0.5       69.7895       37.0159       5.09873  -2.10457e-20
      1.04688            -1           0.5       69.1763       37.0347       5.09438  -1.17133e-20
       1.0625            -1           0.5       68.5196       37.0543       5.08929   1.17838e-22
      1.07812            -1           0.5       67.8936       37.0723       5.08694  -4.17275e-20
      1.09375            -1           0.5       67.2407       37.0914       5.08315  -6.28915e-20
      1.10938            -1           0.5       66.5795       37.1097       5.08054  -1.80474e-19
        1.125            -1           0.5       65.8943       37.1298       5.07713   1.38125e-19
      1.14062            -1           0.5       65.2284        37.147       5.07559   7.02103e-19
      1.15625            -1           0.5       64.6475       37.1655       5.07301  -2.22464e-19
      1.17188            -1           0.5        64.001       37.1833       5.06981  -3.86066e-22
       1.1875            -1           0.5       63.3604       37.2016       5.06703  -2.23141e-20
      1.20312            -1           0.5       62.8398       37.2179       5.06604   7.78046e-21
      1.21875            -1           0.5       62.1657       37.2356        5.0635   3.52163e-20
      1.23438            -1           0.5       61.5938       37.2517       5.06139   3.09442e-20
         1.25            -1           0.5       60.9383       37.2693       5.06187  -5.97235e-19
      1.26562            -1           0.5       60.3669       37.2858       5.06002   9.51773e-20
      1.28125            -1           0.5       59.6991        37.302       5.05915   1.07472e-20
      1.29688            -1           0.5       59.0101       37.3193       5.05878  -1.88511e-20
       1.3125            -1           0.5       58.4291       37.3361       5.05706  -5.98316e-19
      1.32812            -1           0.5       57.9143       37.3517       5.05604  -2.41393e-19
      1.34375            -1           0.5       57.3439       37.3681       5.05471   -2.0408e-19
      1.35938            -1           0.5       56.8171       37.3823       5.05468  -1.11186e-19
        1.375            -1           0.5       56.3078       37.3975       5.05234   1.70278e-19
      1.39062            -1           0.5        55.737       37.4126        5.0529   2.68967e-19
      1.40625            -1           0.5       55.1592       37.4275       5.05513   2.51017e-19
      1.42188            -1           0.5       54.6087       37.4435       5.05483   3.51519e-20
       1.4375            -1           0.5       54.0535       37.4577       5.05487    9.6463e-20
      1.45312            -1           0.5       53.4502       37.4729       5.05447   1.19684e-19
      1.46875            -1           0.5       52.9613       37.4868       5.05613    1.6861e-19
      1.48438            -1           0.5       52.4801       37.5004       5.05688  -4.76557e-19
         -0.5     -0.984375           0.5       79.0554       36.3036       7.43012  -2.25799e-19
    -0.484375     -0.984375           0.5       79.9366       36.2834       7.41121  -2.14441e-19
     -0.46875     -0.984375           0.5       80.8293       36.2628       7.39281  -1.99409e-19
    -0.453125     -0.984375           0.5       81.8235       36.2413       7.37218  -1.74166e-19
      -0.4375     -0.984375           0.5       82.9528       36.2172       7.35198   2.01525e-19
    -0.421875     -0.984375           0.5       83.8745       36.1946       7.33137  -1.49622e-19
     -0.40625     -0.984375           0.5       84.8523       36.1763       7.30489  -8.19722e-19
    -0.390625     -0.984375           0.5       85.6633       36.1579       7.28167   -2.7814e-19
       -0.375     -0.984375           0.5       86.6307       36.1367       7.25878  -1.37992e-19
    -0.359375     -0.984375           0.5       87.7035       36.1137       7.23034  -6.91368e-20
     -0.34375     -0.984375           0.5       88.5502       36.0926       7.20598  -2.67097e-21
    -0.328125     -0.984375           0.5       89.4524       36.0701       7.17945   4.56378e-21
      -0.3125     -0.984375           0.5       90.6015       36.0429        7.1555   1.12947e-20
    -0.296875     -0.984375           0.5       91.4049       36.0278       7.12602   1.18434e-19
     -0.28125     -0.984375           0.5       92.0006        36.018       7.09144   7.02059e-20
    -0.265625     -0.984375           0.5       92.5925       36.0075       7.05618  -1.38324e-19
        -0.25     -0.984375           0.5       93.2427       35.9963       7.02494  -4.31754e-19
    -0.234375     -0.984375           0.5       94.0887       35.9792       6.99492  -9.95476e-19
     -0.21875     -0.984375           0.5       94.8508       35.9688       6.97105  -1.54585e-19
    -0.203125     -0.984375           0.5        95.972       35.9475       6.94299   3.43955e-19
      -0.1875     -0.984375           0.5       96.7051       35.9326       6.91073   1.06696e-18
    -0.171875     -0.984375           0.5       97.3432       35.9186       6.87413   4.50903e-19
     -0.15625     -0.984375           0.5        97.843       35.9076       6.83779  -8.49444e-21
    -0.140625     -0.984375           0.5       98.5454       35.8988       6.80664  -3.82108e-19
       -0.125     -0.984375           0.5       99.0626       35.8905       6.76981   -7.8778e-19
    -0.109375     -0.984375           0.5       98.9565       35.8904       6.73665  -8.95208e-19
     -0.09375     -0.984375           0.5       99.8627       35.8764       6.70174   1.13313e-18
    -0.078125     -0.984375           0.5       100.415       35.8704        6.6682    9.5651e-19
      -0.0625     -0.984375           0.5       101.153       35.8611       6.63025   1.63484e-20
    -0.046875     -0.984375           0.5       101.534       35.8551       6.59598   1.48784e-19
     -0.03125     -0.984375           0.5        101.91       35.8551       6.55732  -2.21053e-19
    -0.015625     -0.984375           0.5       101.991        35.856       6.52046   -2.1702e-19
  6.78494e-16     -0.984375           0.5       102.361       35.8533       6.48401  -2.93849e-19
     0.015625     -0.984375           0.5       102.831       35.8483       6.44889  -4.50981e-19
      0.03125     -0.984375           0.5        103.19        35.847       6.41045  -1.90254e-19
     0.046875     -0.984375           0.5       103.503       35.8474       6.37123   2.52326e-20
       0.0625     -0.984375           0.5        103.94       35.8486       6.33014  -1.52645e-21
     0.078125     -0.984375           0.5       103.911       35.8542       6.29531  -1.82566e-20
      0.09375     -0.984375           0.5       103.837       35.8581          6.26  -2.00973e-19
     0.109375     -0.984375           0.5       103.877       35.8651        6.2232   1.24371e-19
        0.125     -0.984375           0.5       103.961       35.8696       6.18925   5.70531e-19
     0.140625     -0.984375           0.5       103.806        35.879       6.15851  -6.51985e-19
      0.15625     -0.984375           0.5       103.605       35.8851       6.11339  -4.35781e-20
     0.171875     -0.984375           0.5        103.38       35.8957       6.07462    1.0714e-20
       0.1875     -0.984375           0.5       103.681       35.9006       6.04555   2.45045e-21
     0.203125     -0.984375           0.5       103.383       35.9166       6.01212   3.31287e-20
      0.21875     -0.984375           0.5       103.019       35.9331       5.97637   7.44064e-20
     0.234375     -0.984375           0.5        103.17       35.9403       5.94461   -7.0948e-20
         0.25     -0.984375           0.5       102.942       35.9532       5.91204   9.65045e-20
     0.265625     -0.984375           0.5        102.64       35.9675       5.87942   2.13398e-19
      0.28125     -0.984375           0.5       102.217       35.9834       5.84648    1.5442e-19
     0.296875     -0.984375           0.5       101.818       35.9987       5.81365   7.18185e-20
       0.3125     -0.984375           0.5       101.405       36.0168       5.78174   6.03721e-19
     0.328125     -0.984375           0.5        100.99       36.0346       5.75151    7.4188e-19
      0.34375     -0.984375           0.5       100.592       36.0507       5.72344     4.496e-19
     0.359375     -0.984375           0.5       99.9087       36.0726       5.69575    7.2679e-19
        0.375     -0.984375           0.5       99.4788       36.0904       5.66442  -5.18328e-21
     0.390625     -0.984375           0.5       98.9415       36.1096       5.63955  -4.82732e-19
      0.40625     -0.984375           0.5       98.4546       36.1307       5.61083   1.33068e-19
     0.421875     -0.984375           0.5       97.7831       36.1498       5.58565  -3.53699e-19
       0.4375     -0.984375           0.5       97.2245       36.1697       5.56313  -2.67819e-19
     0.453125     -0.984375           0.5       96.8813       36.1904       5.53967  -2.45284e-19
      0.46875     -0.984375           0.5       96.1422       36.2144       5.51726   3.16601e-19
     0.484375     -0.984375           0.5       95.2289       36.2365       5.48993   2.62059e-19
          0.5     -0.984375           0.5       94.6017       36.2591       5.47117   -5.0185e-20
     0.515625     -0.984375           0.5       94.0045       36.2803       5.44825  -1.69707e-19
      0.53125     -0.984375           0.5       93.3629       36.3027       5.42218  -2.16499e-19
     0.546875     -0.984375           0.5       92.6177        36.326       5.40275  -1.32898e-19
       0.5625     -0.984375           0.5         92.04       36.3496       5.38646  -2.37756e-19
     0.578125     -0.984375           0.5        91.237       36.3737       5.36929  -4.54598e-19
      0.59375     -0.984375           0.5       90.4285       36.3977        5.3519   1.52326e-19
     0.609375     -0.984375           0.5       89.8111       36.4187       5.33425   3.14079e-19
        0.625     -0.984375           0.5       89.1781       36.4401       5.31837   1.22541e-19
     0.640625     -0.984375           0.5       88.5539       36.4624        5.3014    1.1117e-18
      0.65625     -0.984375           0.5       87.6164       36.4872       5.28935  -1.11755e-19
     0.671875     -0.984375           0.5       86.6171       36.5131       5.27469  -1.72834e-21
       0.6875     -0.984375           0.5       85.9874        36.534       5.25897   5.93586e-22
     0.703125     -0.984375           0.5       85.2898       36.5577       5.24666  -4.62912e-20
      0.71875     -0.984375           0.5       84.6216       36.5816       5.23424   -9.1521e-20
     0.734375     -0.984375           0.5       83.9079       36.6048       5.22261  -9.10136e-20
         0.75     -0.984375           0.5       83.1734       36.6275       5.21185  -5.54829e-20
     0.765625     -0.984375           0.5       82.4151       36.6502       5.20049  -2.79322e-20
      0.78125     -0.984375           0.5       81.5271        36.674       5.18876  -9.06088e-20
     0.796875     -0.984375           0.5       80.5518       36.6988       5.17694  -2.35732e-19
       0.8125     -0.984375           0.5       80.0387       36.7189       5.17014  -1.22601e-19
     0.828125     -0.984375           0.5       79.3629       36.7396       5.16134  -2.61433e-19
      0.84375     -0.984375           0.5       78.6816       36.7608       5.15248   4.29636e-19
     0.859375     -0.984375           0.5       77.9036       36.7821       5.14466    1.2529e-19
        0.875     -0.984375           0.5       77.2075       36.8038       5.13599    5.6921e-20
     0.890625     -0.984375           0.5       76.4529       36.8263       5.12825   3.83365e-22
      0.90625     -0.984375           0.5       75.6475       36.8493       5.12217  -2.42015e-20
     0.921875     -0.984375           0.5       74.8932       36.8714       5.11498   -3.4909e-20
       0.9375     -0.984375           0.5       74.2171       36.8915       5.11013   -2.4496e-20
     0.953125     -0.984375           0.5       73.5496        36.912       5.10486   1.76296e-20
      0.96875     -0.984375           0.5       72.8453       36.9325       5.10012  -7.97994e-20
     0.984375     -0.984375           0.5       72.1684       36.9549       5.09223   -1.0941e-19
            1     -0.984375           0.5        71.541       36.9725       5.09041  -1.59548e-19
      1.01562     -0.984375           0.5        70.796       36.9916       5.08514  -6.01949e-20
      1.03125     -0.984375           0.5        70.055       37.0119       5.07973  -2.44524e-20
      1.04688     -0.984375           0.5       69.4261        37.031       5.07468  -1.14761e-20
       1.0625     -0.984375           0.5       68.7691       37.0506       5.06959   2.57967e-22
      1.07812     -0.984375           0.5       68.1412       37.0689        5.0673  -2.88925e-20
      1.09375     -0.984375           0.5       67.5012       37.0867       5.06425  -9.89832e-20
      1.10938     -0.984375           0.5       66.8208        37.106       5.06205  -1.32485e-19
        1.125     -0.984375           0.5       66.1212       37.1273       5.05775   1.81275e-19
      1.14062     -0.984375           0.5       65.4233       37.1458       5.05626   1.02676e-19
      1.15625     -0.984375           0.5       64.8683       37.1634       5.05507  -4.43157e-19
      1.17188     -0.984375           0.5       64.1221       37.1833       5.05116   -3.7853e-20
       1.1875     -0.984375           0.5       63.5647       37.2001       5.04927   -3.8877e-20
      1.20312     -0.984375           0.5       62.9977       37.2166       5.04807   9.17226e-21
      1.21875     -0.984375           0.5       62.3694       37.2337        5.0464   5.89305e-20
      1.23438     -0.984375           0.5       61.7226        37.251       5.04487   4.26641e-20
         1.25     -0.984375           0.5       61.1199       37.2677       5.04337   9.93698e-20
      1.26562     -0.984375           0.5       60.4808       37.2854       5.04271   2.00751e-20
      1.28125     -0.984375           0.5        59.831       37.3026       5.04242   -3.9097e-20
      1.29688     -0.984375           0.5       59.1588       37.3197       5.04188  -7.08582e-20
       1.3125     -0.984375           0.5       58.5783       37.3364       5.04045  -4.65536e-19
      1.32812     -0.984375           0.5       58.0272       37.3525       5.03961  -2.81447e-19
      1.34375     -0.984375           0.5       57.4601       37.3685       5.03873   -2.3969e-19
      1.35938     -0.984375           0.5       56.9339       37.3843       5.03583   -1.1459e-19
        1.375     -0.984375           0.5       56.4097       37.3992        5.0348   5.63017e-20
      1.39062     -0.984375           0.5       55.7683       37.4146       5.03722   5.06003e-19
      1.40625     -0.984375           0.5       55.1819       37.4301       5.03773   4.66526e-19
      1.42188     -0.984375           0.5       54.6448       37.4449       5.03935   5.16889e-20
       1.4375     -0.984375           0.5       53.9769       37.4611         5.038   2.87826e-20
      1.45312     -0.984375           0.5        53.485       37.4752       5.03984   7.48928e-20
      1.46875     -0.984375           0.5       52.9524       37.4894       5.04184   4.63622e-19
      1.48438     -0.984375           0.5       52.4672       37.5033       5.04266   2.70056e-19
         -0.5      -0.96875           0.5       79.4833       36.2833       7.45266  -3.91453e-19
    -0.484375      -0.96875           0.5       80.4637       36.2595       7.43669  -2.87689e-19
     -0.46875      -0.96875           0.5        81.424       36.2388       7.41688  -2.29316e-19
    -0.453125      -0.96875           0.5       82.5199       36.2167       7.39373  -3.02268e-19
      -0.4375      -0.96875           0.5       83.5577       36.1937       7.37145  -3.50175e-19
    -0.421875      -0.96875           0.5       84.5973       36.1706       7.34951   -3.1439e-19
     -0.40625      -0.96875           0.5       85.4951       36.1501       7.32645  -2.25231e-19
    -0.390625      -0.96875           0.5       86.4027       36.1287       7.30395  -2.94135e-20
       -0.375      -0.96875           0.5       87.3087       36.1114       7.27971    5.1076e-21
    -0.359375      -0.96875           0.5       88.4991       36.0849       7.25462   1.24613e-20
     -0.34375      -0.96875           0.5       89.5096       36.0639       7.22526     1.074e-20
    -0.328125      -0.96875           0.5       90.6292       36.0391       7.19924   4.10399e-21
      -0.3125      -0.96875           0.5       91.4603       36.0166       7.17534   1.08492e-19
    -0.296875      -0.96875           0.5       92.2853       35.9989       7.14175  -2.44277e-20
     -0.28125      -0.96875           0.5        92.105        35.991       7.12111  -1.08227e-20
    -0.265625      -0.96875           0.5       93.3098        35.978        7.0757  -8.03345e-20
        -0.25      -0.96875           0.5       94.7345       35.9554        7.0408   -8.4719e-20
    -0.234375      -0.96875           0.5       95.4779       35.9419       7.01482   1.28304e-20
     -0.21875      -0.96875           0.5       96.2214       35.9285       6.98884    1.1038e-19
    -0.203125      -0.96875           0.5       96.9415       35.9153       6.95928   1.58295e-19
      -0.1875      -0.96875           0.5       97.6467       35.9005       6.92389   7.54106e-20
    -0.171875      -0.96875           0.5       98.3518       35.8857       6.88851  -7.47423e-21
     -0.15625      -0.96875           0.5       99.0158       35.8728       6.85254  -1.91061e-19
    -0.140625      -0.96875           0.5       99.4974       35.8644       6.81619  -6.30946e-19
       -0.125      -0.96875           0.5       99.9757       35.8561       6.77988  -1.08077e-18
    -0.109375      -0.96875           0.5       100.557       35.8501       6.74629  -7.47024e-19
     -0.09375      -0.96875           0.5       100.939       35.8455       6.71441  -4.42791e-19
    -0.078125      -0.96875           0.5       101.751       35.8344       6.67932  -4.46508e-20
      -0.0625      -0.96875           0.5       102.409       35.8242       6.63526   -4.8104e-19
    -0.046875      -0.96875           0.5       102.823       35.8156       6.60207  -1.24487e-20
     -0.03125      -0.96875           0.5       103.164       35.8175       6.56189  -2.96879e-19
    -0.015625      -0.96875           0.5       103.676       35.8139       6.52013  -1.94688e-19
  9.51279e-16      -0.96875           0.5       104.055       35.8113       6.48247  -1.95477e-19
     0.015625      -0.96875           0.5       104.335       35.8087       6.44664  -5.04293e-19
      0.03125      -0.96875           0.5       104.602       35.8107       6.40968  -7.75718e-19
     0.046875      -0.96875           0.5       104.861       35.8127        6.3691  -2.08698e-19
       0.0625      -0.96875           0.5       105.137       35.8147        6.3302  -2.00967e-20
     0.078125      -0.96875           0.5       105.309        35.818       6.29179  -6.14038e-20
      0.09375      -0.96875           0.5       105.262       35.8201       6.25372  -2.19119e-19
     0.109375      -0.96875           0.5        105.22       35.8278       6.21933  -1.04958e-20
        0.125      -0.96875           0.5       105.274       35.8341       6.18318   1.81421e-19
     0.140625      -0.96875           0.5       105.329       35.8396       6.14831   1.30116e-19
      0.15625      -0.96875           0.5       105.327       35.8456       6.10879  -6.19211e-20
     0.171875      -0.96875           0.5       105.384       35.8521       6.07018  -4.47541e-21
       0.1875      -0.96875           0.5       105.264       35.8663       6.03611   4.04891e-20
     0.203125      -0.96875           0.5        104.78       35.8797       5.99603  -2.65548e-20
      0.21875      -0.96875           0.5       104.408       35.8955       5.95998   7.19088e-20
     0.234375      -0.96875           0.5       104.641       35.9021       5.92863  -1.69136e-19
         0.25      -0.96875           0.5       104.306       35.9183       5.89674  -8.68665e-20